<?xml version="1.0"?>
<VTKFile type="UnstructuredGrid"  version="0.1"  >
<UnstructuredGrid>
<Piece  NumberOfPoints="7161" NumberOfCells="36000">
<Points>
<DataArray  type="Float64"  NumberOfComponents="3"  format="ascii">0 0 0  0.1 0 0  0.2 0 0  0.3 0 0  0.4 0 0  0.5 0 0  0.6 0 0  0.7 0 0  0.8 0 0  0.9 0 0  1 0 0  0 0.1 0  0.1 0.1 0  0.2 0.1 0  0.3 0.1 0  0.4 0.1 0  0.5 0.1 0  0.6 0.1 0  0.7 0.1 0  0.8 0.1 0  0.9 0.1 0  1 0.1 0  0 0.2 0  0.1 0.2 0  0.2 0.2 0  0.3 0.2 0  0.4 0.2 0  0.5 0.2 0  0.6 0.2 0  0.7 0.2 0  0.8 0.2 0  0.9 0.2 0  1 0.2 0  0 0.3 0  0.1 0.3 0  0.2 0.3 0  0.3 0.3 0  0.4 0.3 0  0.5 0.3 0  0.6 0.3 0  0.7 0.3 0  0.8 0.3 0  0.9 0.3 0  1 0.3 0  0 0.4 0  0.1 0.4 0  0.2 0.4 0  0.3 0.4 0  0.4 0.4 0  0.5 0.4 0  0.6 0.4 0  0.7 0.4 0  0.8 0.4 0  0.9 0.4 0  1 0.4 0  0 0.5 0  0.1 0.5 0  0.2 0.5 0  0.3 0.5 0  0.4 0.5 0  0.5 0.5 0  0.6 0.5 0  0.7 0.5 0  0.8 0.5 0  0.9 0.5 0  1 0.5 0  0 0.6 0  0.1 0.6 0  0.2 0.6 0  0.3 0.6 0  0.4 0.6 0  0.5 0.6 0  0.6 0.6 0  0.7 0.6 0  0.8 0.6 0  0.9 0.6 0  1 0.6 0  0 0.7 0  0.1 0.7 0  0.2 0.7 0  0.3 0.7 0  0.4 0.7 0  0.5 0.7 0  0.6 0.7 0  0.7 0.7 0  0.8 0.7 0  0.9 0.7 0  1 0.7 0  0 0.8 0  0.1 0.8 0  0.2 0.8 0  0.3 0.8 0  0.4 0.8 0  0.5 0.8 0  0.6 0.8 0  0.7 0.8 0  0.8 0.8 0  0.9 0.8 0  1 0.8 0  0 0.9 0  0.1 0.9 0  0.2 0.9 0  0.3 0.9 0  0.4 0.9 0  0.5 0.9 0  0.6 0.9 0  0.7 0.9 0  0.8 0.9 0  0.9 0.9 0  1 0.9 0  0 1 0  0.1 1 0  0.2 1 0  0.3 1 0  0.4 1 0  0.5 1 0  0.6 1 0  0.7 1 0  0.8 1 0  0.9 1 0  1 1 0  0 1.1 0  0.1 1.1 0  0.2 1.1 0  0.3 1.1 0  0.4 1.1 0  0.5 1.1 0  0.6 1.1 0  0.7 1.1 0  0.8 1.1 0  0.9 1.1 0  1 1.1 0  0 1.2 0  0.1 1.2 0  0.2 1.2 0  0.3 1.2 0  0.4 1.2 0  0.5 1.2 0  0.6 1.2 0  0.7 1.2 0  0.8 1.2 0  0.9 1.2 0  1 1.2 0  0 1.3 0  0.1 1.3 0  0.2 1.3 0  0.3 1.3 0  0.4 1.3 0  0.5 1.3 0  0.6 1.3 0  0.7 1.3 0  0.8 1.3 0  0.9 1.3 0  1 1.3 0  0 1.4 0  0.1 1.4 0  0.2 1.4 0  0.3 1.4 0  0.4 1.4 0  0.5 1.4 0  0.6 1.4 0  0.7 1.4 0  0.8 1.4 0  0.9 1.4 0  1 1.4 0  0 1.5 0  0.1 1.5 0  0.2 1.5 0  0.3 1.5 0  0.4 1.5 0  0.5 1.5 0  0.6 1.5 0  0.7 1.5 0  0.8 1.5 0  0.9 1.5 0  1 1.5 0  0 1.6 0  0.1 1.6 0  0.2 1.6 0  0.3 1.6 0  0.4 1.6 0  0.5 1.6 0  0.6 1.6 0  0.7 1.6 0  0.8 1.6 0  0.9 1.6 0  1 1.6 0  0 1.7 0  0.1 1.7 0  0.2 1.7 0  0.3 1.7 0  0.4 1.7 0  0.5 1.7 0  0.6 1.7 0  0.7 1.7 0  0.8 1.7 0  0.9 1.7 0  1 1.7 0  0 1.8 0  0.1 1.8 0  0.2 1.8 0  0.3 1.8 0  0.4 1.8 0  0.5 1.8 0  0.6 1.8 0  0.7 1.8 0  0.8 1.8 0  0.9 1.8 0  1 1.8 0  0 1.9 0  0.1 1.9 0  0.2 1.9 0  0.3 1.9 0  0.4 1.9 0  0.5 1.9 0  0.6 1.9 0  0.7 1.9 0  0.8 1.9 0  0.9 1.9 0  1 1.9 0  0 2 0  0.1 2 0  0.2 2 0  0.3 2 0  0.4 2 0  0.5 2 0  0.6 2 0  0.7 2 0  0.8 2 0  0.9 2 0  1 2 0  0 0 0.1  0.1 0 0.1  0.2 0 0.1  0.3 0 0.1  0.4 0 0.1  0.5 0 0.1  0.6 0 0.1  0.7 0 0.1  0.8 0 0.1  0.9 0 0.1  1 0 0.1  0 0.1 0.1  0.1 0.1 0.1  0.2 0.1 0.1  0.3 0.1 0.1  0.4 0.1 0.1  0.5 0.1 0.1  0.6 0.1 0.1  0.7 0.1 0.1  0.8 0.1 0.1  0.9 0.1 0.1  1 0.1 0.1  0 0.2 0.1  0.1 0.2 0.1  0.2 0.2 0.1  0.3 0.2 0.1  0.4 0.2 0.1  0.5 0.2 0.1  0.6 0.2 0.1  0.7 0.2 0.1  0.8 0.2 0.1  0.9 0.2 0.1  1 0.2 0.1  0 0.3 0.1  0.1 0.3 0.1  0.2 0.3 0.1  0.3 0.3 0.1  0.4 0.3 0.1  0.5 0.3 0.1  0.6 0.3 0.1  0.7 0.3 0.1  0.8 0.3 0.1  0.9 0.3 0.1  1 0.3 0.1  0 0.4 0.1  0.1 0.4 0.1  0.2 0.4 0.1  0.3 0.4 0.1  0.4 0.4 0.1  0.5 0.4 0.1  0.6 0.4 0.1  0.7 0.4 0.1  0.8 0.4 0.1  0.9 0.4 0.1  1 0.4 0.1  0 0.5 0.1  0.1 0.5 0.1  0.2 0.5 0.1  0.3 0.5 0.1  0.4 0.5 0.1  0.5 0.5 0.1  0.6 0.5 0.1  0.7 0.5 0.1  0.8 0.5 0.1  0.9 0.5 0.1  1 0.5 0.1  0 0.6 0.1  0.1 0.6 0.1  0.2 0.6 0.1  0.3 0.6 0.1  0.4 0.6 0.1  0.5 0.6 0.1  0.6 0.6 0.1  0.7 0.6 0.1  0.8 0.6 0.1  0.9 0.6 0.1  1 0.6 0.1  0 0.7 0.1  0.1 0.7 0.1  0.2 0.7 0.1  0.3 0.7 0.1  0.4 0.7 0.1  0.5 0.7 0.1  0.6 0.7 0.1  0.7 0.7 0.1  0.8 0.7 0.1  0.9 0.7 0.1  1 0.7 0.1  0 0.8 0.1  0.1 0.8 0.1  0.2 0.8 0.1  0.3 0.8 0.1  0.4 0.8 0.1  0.5 0.8 0.1  0.6 0.8 0.1  0.7 0.8 0.1  0.8 0.8 0.1  0.9 0.8 0.1  1 0.8 0.1  0 0.9 0.1  0.1 0.9 0.1  0.2 0.9 0.1  0.3 0.9 0.1  0.4 0.9 0.1  0.5 0.9 0.1  0.6 0.9 0.1  0.7 0.9 0.1  0.8 0.9 0.1  0.9 0.9 0.1  1 0.9 0.1  0 1 0.1  0.1 1 0.1  0.2 1 0.1  0.3 1 0.1  0.4 1 0.1  0.5 1 0.1  0.6 1 0.1  0.7 1 0.1  0.8 1 0.1  0.9 1 0.1  1 1 0.1  0 1.1 0.1  0.1 1.1 0.1  0.2 1.1 0.1  0.3 1.1 0.1  0.4 1.1 0.1  0.5 1.1 0.1  0.6 1.1 0.1  0.7 1.1 0.1  0.8 1.1 0.1  0.9 1.1 0.1  1 1.1 0.1  0 1.2 0.1  0.1 1.2 0.1  0.2 1.2 0.1  0.3 1.2 0.1  0.4 1.2 0.1  0.5 1.2 0.1  0.6 1.2 0.1  0.7 1.2 0.1  0.8 1.2 0.1  0.9 1.2 0.1  1 1.2 0.1  0 1.3 0.1  0.1 1.3 0.1  0.2 1.3 0.1  0.3 1.3 0.1  0.4 1.3 0.1  0.5 1.3 0.1  0.6 1.3 0.1  0.7 1.3 0.1  0.8 1.3 0.1  0.9 1.3 0.1  1 1.3 0.1  0 1.4 0.1  0.1 1.4 0.1  0.2 1.4 0.1  0.3 1.4 0.1  0.4 1.4 0.1  0.5 1.4 0.1  0.6 1.4 0.1  0.7 1.4 0.1  0.8 1.4 0.1  0.9 1.4 0.1  1 1.4 0.1  0 1.5 0.1  0.1 1.5 0.1  0.2 1.5 0.1  0.3 1.5 0.1  0.4 1.5 0.1  0.5 1.5 0.1  0.6 1.5 0.1  0.7 1.5 0.1  0.8 1.5 0.1  0.9 1.5 0.1  1 1.5 0.1  0 1.6 0.1  0.1 1.6 0.1  0.2 1.6 0.1  0.3 1.6 0.1  0.4 1.6 0.1  0.5 1.6 0.1  0.6 1.6 0.1  0.7 1.6 0.1  0.8 1.6 0.1  0.9 1.6 0.1  1 1.6 0.1  0 1.7 0.1  0.1 1.7 0.1  0.2 1.7 0.1  0.3 1.7 0.1  0.4 1.7 0.1  0.5 1.7 0.1  0.6 1.7 0.1  0.7 1.7 0.1  0.8 1.7 0.1  0.9 1.7 0.1  1 1.7 0.1  0 1.8 0.1  0.1 1.8 0.1  0.2 1.8 0.1  0.3 1.8 0.1  0.4 1.8 0.1  0.5 1.8 0.1  0.6 1.8 0.1  0.7 1.8 0.1  0.8 1.8 0.1  0.9 1.8 0.1  1 1.8 0.1  0 1.9 0.1  0.1 1.9 0.1  0.2 1.9 0.1  0.3 1.9 0.1  0.4 1.9 0.1  0.5 1.9 0.1  0.6 1.9 0.1  0.7 1.9 0.1  0.8 1.9 0.1  0.9 1.9 0.1  1 1.9 0.1  0 2 0.1  0.1 2 0.1  0.2 2 0.1  0.3 2 0.1  0.4 2 0.1  0.5 2 0.1  0.6 2 0.1  0.7 2 0.1  0.8 2 0.1  0.9 2 0.1  1 2 0.1  0 0 0.2  0.1 0 0.2  0.2 0 0.2  0.3 0 0.2  0.4 0 0.2  0.5 0 0.2  0.6 0 0.2  0.7 0 0.2  0.8 0 0.2  0.9 0 0.2  1 0 0.2  0 0.1 0.2  0.1 0.1 0.2  0.2 0.1 0.2  0.3 0.1 0.2  0.4 0.1 0.2  0.5 0.1 0.2  0.6 0.1 0.2  0.7 0.1 0.2  0.8 0.1 0.2  0.9 0.1 0.2  1 0.1 0.2  0 0.2 0.2  0.1 0.2 0.2  0.2 0.2 0.2  0.3 0.2 0.2  0.4 0.2 0.2  0.5 0.2 0.2  0.6 0.2 0.2  0.7 0.2 0.2  0.8 0.2 0.2  0.9 0.2 0.2  1 0.2 0.2  0 0.3 0.2  0.1 0.3 0.2  0.2 0.3 0.2  0.3 0.3 0.2  0.4 0.3 0.2  0.5 0.3 0.2  0.6 0.3 0.2  0.7 0.3 0.2  0.8 0.3 0.2  0.9 0.3 0.2  1 0.3 0.2  0 0.4 0.2  0.1 0.4 0.2  0.2 0.4 0.2  0.3 0.4 0.2  0.4 0.4 0.2  0.5 0.4 0.2  0.6 0.4 0.2  0.7 0.4 0.2  0.8 0.4 0.2  0.9 0.4 0.2  1 0.4 0.2  0 0.5 0.2  0.1 0.5 0.2  0.2 0.5 0.2  0.3 0.5 0.2  0.4 0.5 0.2  0.5 0.5 0.2  0.6 0.5 0.2  0.7 0.5 0.2  0.8 0.5 0.2  0.9 0.5 0.2  1 0.5 0.2  0 0.6 0.2  0.1 0.6 0.2  0.2 0.6 0.2  0.3 0.6 0.2  0.4 0.6 0.2  0.5 0.6 0.2  0.6 0.6 0.2  0.7 0.6 0.2  0.8 0.6 0.2  0.9 0.6 0.2  1 0.6 0.2  0 0.7 0.2  0.1 0.7 0.2  0.2 0.7 0.2  0.3 0.7 0.2  0.4 0.7 0.2  0.5 0.7 0.2  0.6 0.7 0.2  0.7 0.7 0.2  0.8 0.7 0.2  0.9 0.7 0.2  1 0.7 0.2  0 0.8 0.2  0.1 0.8 0.2  0.2 0.8 0.2  0.3 0.8 0.2  0.4 0.8 0.2  0.5 0.8 0.2  0.6 0.8 0.2  0.7 0.8 0.2  0.8 0.8 0.2  0.9 0.8 0.2  1 0.8 0.2  0 0.9 0.2  0.1 0.9 0.2  0.2 0.9 0.2  0.3 0.9 0.2  0.4 0.9 0.2  0.5 0.9 0.2  0.6 0.9 0.2  0.7 0.9 0.2  0.8 0.9 0.2  0.9 0.9 0.2  1 0.9 0.2  0 1 0.2  0.1 1 0.2  0.2 1 0.2  0.3 1 0.2  0.4 1 0.2  0.5 1 0.2  0.6 1 0.2  0.7 1 0.2  0.8 1 0.2  0.9 1 0.2  1 1 0.2  0 1.1 0.2  0.1 1.1 0.2  0.2 1.1 0.2  0.3 1.1 0.2  0.4 1.1 0.2  0.5 1.1 0.2  0.6 1.1 0.2  0.7 1.1 0.2  0.8 1.1 0.2  0.9 1.1 0.2  1 1.1 0.2  0 1.2 0.2  0.1 1.2 0.2  0.2 1.2 0.2  0.3 1.2 0.2  0.4 1.2 0.2  0.5 1.2 0.2  0.6 1.2 0.2  0.7 1.2 0.2  0.8 1.2 0.2  0.9 1.2 0.2  1 1.2 0.2  0 1.3 0.2  0.1 1.3 0.2  0.2 1.3 0.2  0.3 1.3 0.2  0.4 1.3 0.2  0.5 1.3 0.2  0.6 1.3 0.2  0.7 1.3 0.2  0.8 1.3 0.2  0.9 1.3 0.2  1 1.3 0.2  0 1.4 0.2  0.1 1.4 0.2  0.2 1.4 0.2  0.3 1.4 0.2  0.4 1.4 0.2  0.5 1.4 0.2  0.6 1.4 0.2  0.7 1.4 0.2  0.8 1.4 0.2  0.9 1.4 0.2  1 1.4 0.2  0 1.5 0.2  0.1 1.5 0.2  0.2 1.5 0.2  0.3 1.5 0.2  0.4 1.5 0.2  0.5 1.5 0.2  0.6 1.5 0.2  0.7 1.5 0.2  0.8 1.5 0.2  0.9 1.5 0.2  1 1.5 0.2  0 1.6 0.2  0.1 1.6 0.2  0.2 1.6 0.2  0.3 1.6 0.2  0.4 1.6 0.2  0.5 1.6 0.2  0.6 1.6 0.2  0.7 1.6 0.2  0.8 1.6 0.2  0.9 1.6 0.2  1 1.6 0.2  0 1.7 0.2  0.1 1.7 0.2  0.2 1.7 0.2  0.3 1.7 0.2  0.4 1.7 0.2  0.5 1.7 0.2  0.6 1.7 0.2  0.7 1.7 0.2  0.8 1.7 0.2  0.9 1.7 0.2  1 1.7 0.2  0 1.8 0.2  0.1 1.8 0.2  0.2 1.8 0.2  0.3 1.8 0.2  0.4 1.8 0.2  0.5 1.8 0.2  0.6 1.8 0.2  0.7 1.8 0.2  0.8 1.8 0.2  0.9 1.8 0.2  1 1.8 0.2  0 1.9 0.2  0.1 1.9 0.2  0.2 1.9 0.2  0.3 1.9 0.2  0.4 1.9 0.2  0.5 1.9 0.2  0.6 1.9 0.2  0.7 1.9 0.2  0.8 1.9 0.2  0.9 1.9 0.2  1 1.9 0.2  0 2 0.2  0.1 2 0.2  0.2 2 0.2  0.3 2 0.2  0.4 2 0.2  0.5 2 0.2  0.6 2 0.2  0.7 2 0.2  0.8 2 0.2  0.9 2 0.2  1 2 0.2  0 0 0.3  0.1 0 0.3  0.2 0 0.3  0.3 0 0.3  0.4 0 0.3  0.5 0 0.3  0.6 0 0.3  0.7 0 0.3  0.8 0 0.3  0.9 0 0.3  1 0 0.3  0 0.1 0.3  0.1 0.1 0.3  0.2 0.1 0.3  0.3 0.1 0.3  0.4 0.1 0.3  0.5 0.1 0.3  0.6 0.1 0.3  0.7 0.1 0.3  0.8 0.1 0.3  0.9 0.1 0.3  1 0.1 0.3  0 0.2 0.3  0.1 0.2 0.3  0.2 0.2 0.3  0.3 0.2 0.3  0.4 0.2 0.3  0.5 0.2 0.3  0.6 0.2 0.3  0.7 0.2 0.3  0.8 0.2 0.3  0.9 0.2 0.3  1 0.2 0.3  0 0.3 0.3  0.1 0.3 0.3  0.2 0.3 0.3  0.3 0.3 0.3  0.4 0.3 0.3  0.5 0.3 0.3  0.6 0.3 0.3  0.7 0.3 0.3  0.8 0.3 0.3  0.9 0.3 0.3  1 0.3 0.3  0 0.4 0.3  0.1 0.4 0.3  0.2 0.4 0.3  0.3 0.4 0.3  0.4 0.4 0.3  0.5 0.4 0.3  0.6 0.4 0.3  0.7 0.4 0.3  0.8 0.4 0.3  0.9 0.4 0.3  1 0.4 0.3  0 0.5 0.3  0.1 0.5 0.3  0.2 0.5 0.3  0.3 0.5 0.3  0.4 0.5 0.3  0.5 0.5 0.3  0.6 0.5 0.3  0.7 0.5 0.3  0.8 0.5 0.3  0.9 0.5 0.3  1 0.5 0.3  0 0.6 0.3  0.1 0.6 0.3  0.2 0.6 0.3  0.3 0.6 0.3  0.4 0.6 0.3  0.5 0.6 0.3  0.6 0.6 0.3  0.7 0.6 0.3  0.8 0.6 0.3  0.9 0.6 0.3  1 0.6 0.3  0 0.7 0.3  0.1 0.7 0.3  0.2 0.7 0.3  0.3 0.7 0.3  0.4 0.7 0.3  0.5 0.7 0.3  0.6 0.7 0.3  0.7 0.7 0.3  0.8 0.7 0.3  0.9 0.7 0.3  1 0.7 0.3  0 0.8 0.3  0.1 0.8 0.3  0.2 0.8 0.3  0.3 0.8 0.3  0.4 0.8 0.3  0.5 0.8 0.3  0.6 0.8 0.3  0.7 0.8 0.3  0.8 0.8 0.3  0.9 0.8 0.3  1 0.8 0.3  0 0.9 0.3  0.1 0.9 0.3  0.2 0.9 0.3  0.3 0.9 0.3  0.4 0.9 0.3  0.5 0.9 0.3  0.6 0.9 0.3  0.7 0.9 0.3  0.8 0.9 0.3  0.9 0.9 0.3  1 0.9 0.3  0 1 0.3  0.1 1 0.3  0.2 1 0.3  0.3 1 0.3  0.4 1 0.3  0.5 1 0.3  0.6 1 0.3  0.7 1 0.3  0.8 1 0.3  0.9 1 0.3  1 1 0.3  0 1.1 0.3  0.1 1.1 0.3  0.2 1.1 0.3  0.3 1.1 0.3  0.4 1.1 0.3  0.5 1.1 0.3  0.6 1.1 0.3  0.7 1.1 0.3  0.8 1.1 0.3  0.9 1.1 0.3  1 1.1 0.3  0 1.2 0.3  0.1 1.2 0.3  0.2 1.2 0.3  0.3 1.2 0.3  0.4 1.2 
[...]
<PointData  Scalars="u"> 
<DataArray  type="Float64"  Name="u"  format="ascii">0.0000000000000000e+00  5.1319736700991578e+00  1.0644398310463794e+01  1.6279050212350594e+01  2.1675800152105243e+01  2.6386430435856418e+01  2.9827487170461296e+01  3.1163822285404052e+01  2.9025958229584749e+01  2.0739425618286681e+01  0.0000000000000000e+00  0.0000000000000000e+00  4.1169620458202294e+00  8.7159751207045790e+00  1.3471079263599986e+01  1.8017499526095012e+01  2.1922707760840691e+01  2.4642059475009443e+01  2.5434626148785313e+01  2.3187842721495549e+01  1.6002200929167742e+01  0.0000000000000000e+00  0.0000000000000000e+00  3.3309557817302395e+00  7.1777517040802730e+00  1.1218452420505070e+01  1.5103673256950083e+01  1.8433139970945657e+01  2.0723018270011924e+01  2.1349179726577926e+01  1.9425835791592089e+01  1.3458157243744241e+01  0.0000000000000000e+00  0.0000000000000000e+00  2.7102372504450609e+00  5.9589919928576416e+00  9.4429287620835165e+00  1.2837233088058193e+01  1.5779054111331639e+01  1.7843421289931420e+01  1.8498045860664995e+01  1.6990161634536701e+01  1.1972202706745131e+01  0.0000000000000000e+00  0.0000000000000000e+00  2.2256075854124644e+00  5.0103286539186085e+00  8.0721048154684265e+00  1.1111878874182892e+01  1.3800905362257470e+01  1.5760252661420983e+01  1.6516816308988624e+01  1.5382203703662949e+01  1.1046172656941684e+01  0.0000000000000000e+00  0.0000000000000000e+00  1.8548198326149314e+00  4.2875982224664204e+00  7.0362802976630663e+00  9.8247349160291098e+00  1.2351573360694658e+01  1.4269978540327438e+01  1.5140974312898765e+01  1.4302906282542295e+01  1.0444629790008554e+01  0.0000000000000000e+00  0.0000000000000000e+00  1.5786017034667350e+00  3.7513566882912288e+00  6.2732020905696855e+00  8.8865544324285199e+00  1.1310324697811087e+01  1.3218645314793449e+01  1.4190814818215381e+01  1.3574031286818675e+01  1.0046115347090728e+01  0.0000000000000000e+00  0.0000000000000000e+00  1.3807444321287015e+00  3.3685193205275512e+00  5.7315389294891395e+00  8.2261117962767774e+00  1.0585300897227652e+01  1.2496270382795830e+01  1.3547556815878188e+01  1.3087742859368641e+01  9.7832918463570770e+00  0.0000000000000000e+00  0.0000000000000000e+00  1.2485075452239469e+00  3.1132997717636721e+00  5.3719859255295299e+00  7.7903742447638784e+00  1.0110668704414744e+01  1.2027696066479296e+01  1.3134401118492079e+01  1.2778305011084482e+01  9.6172162739052283e+00  0.0000000000000000e+00  0.0000000000000000e+00  1.1728001988323529e+00  2.9674342137754888e+00  5.1670836446760440e+00  7.5430577688076905e+00  9.8426428214439863e+00  1.1764637689010344e+01  1.2903875051408834e+01  1.2606619303037103e+01  9.5254482050566711e+00  0.0000000000000000e+00  0.0000000000000000e+00  1.1482131945033176e+00  2.9201101624921160e+00  5.1007230625617330e+00  7.4631674051144259e+00  9.7563551999985521e+00  1.1680286142722016e+01  1.2830262361671616e+01  1.2552000144352331e+01  9.4963302829839673e+00  0.0000000000000000e+00  0.0000000000000000e+00  1.1730057080334095e+00  2.9678569611807002e+00  5.1677585225748501e+00  7.5440486947137000e+00  9.8440101396031618e+00  1.1766350852613325e+01  1.2905724744934938e+01  1.2608225162930120e+01  9.5263894146811303e+00  0.0000000000000000e+00  0.0000000000000000e+00  1.2491058697791888e+00  3.1145231803159281e+00  5.3739086955716289e+00  7.7931283401119762e+00  1.0114369038715399e+01  1.2032233523755446e+01  1.3139229956577527e+01  1.2782463004988875e+01  9.6196443182765581e+00  0.0000000000000000e+00  0.0000000000000000e+00  1.3821368942537802e+00  3.3713690419362816e+00  5.7359915945473654e+00  8.2323929309603479e+00  1.0593570773572239e+01  1.2506227520441625e+01  1.3558023469034474e+01  1.3096701952728051e+01  9.7885160402752156e+00  0.0000000000000000e+00  0.0000000000000000e+00  1.5814262432427058e+00  3.7571945780101834e+00  6.2823928214665941e+00  8.8995155745923942e+00  1.1327265534050674e+01  1.3238869543998193e+01  1.4211983865423329e+01  1.3592182001329363e+01  1.0056753747653090e+01  0.0000000000000000e+00  0.0000000000000000e+00  1.8598931336247868e+00  4.2982947082849368e+00  7.0534719521298372e+00  9.8493197141999680e+00  1.2383906121159473e+01  1.4308728482084975e+01  1.5181874181602449e+01  1.4338502529306369e+01  1.0465858893939243e+01  0.0000000000000000e+00  0.0000000000000000e+00  2.2336504901181349e+00  5.0278919904884392e+00  8.1013582050170871e+00  1.1154896918916640e+01  1.3858652366664613e+01  1.5830843432627590e+01  1.6593332924408809e+01  1.5451223391878193e+01  1.1088969273161190e+01  0.0000000000000000e+00  0.0000000000000000e+00  2.7211405249729892e+00  5.9846146387560735e+00  9.4883361383765727e+00  1.2907150887170943e+01  1.5876486277600078e+01  1.7967297700847990e+01  1.8639284673170184e+01  1.7126254889710154e+01  1.2063252220153389e+01  0.0000000000000000e+00  0.0000000000000000e+00  3.3417638653467705e+00  7.2097978786270032e+00  1.1283113746519906e+01  1.5211144679946505e+01  1.8591783646255578e+01  2.0937225134691957e+01  2.1613189719115930e+01  1.9708774926906653e+01  1.3675241751609626e+01  0.0000000000000000e+00  0.0000000000000000e+00  4.1146211917295599e+00  8.7446730795795151e+00  1.3555996310960650e+01  1.8179174128471992e+01  2.2181448285223766e+01  2.5019705277169518e+01  2.5950480177798593e+01  2.3831790695783504e+01  1.6621616724400106e+01  0.0000000000000000e+00  0.0000000000000000e+00  5.0605541589881646e+00  1.0633839556932493e+01  1.6382350326651039e+01  2.1931674333260176e+01  2.6840279876873836e+01  3.0546716394252631e+01  3.2259532560612257e+01  3.0669404977625693e+01  2.2945242405977275e+01  0.0000000000000000e+00  0.0000000000000000e+00  4.1158245399844517e+00  8.7138098848425329e+00  1.3468095694194608e+01  1.8013987106317465e+01  2.1919008701315118e+01  2.4638535837534430e+01  2.5431624428211155e+01  2.3185659333780485e+01  1.6001052204527348e+01  0.0000000000000000e+00  0.0000000000000000e+00  3.1782887703244911e+00  6.8596846167508279e+00  1.0714604056971824e+01  1.4382723253849575e+01  1.7445413473227756e+01  1.9389113658786844e+01  1.9549281259471019e+01  1.7036072534116396e+01  1.0730744915082662e+01  0.0000000000000000e+00  0.0000000000000000e+00  2.4072467616371380e+00  5.3379223392477959e+00  8.4744955184294071e+00  1.1474711842656584e+01  1.3952047814705315e+01  1.5452009361156476e+01  1.5423631037533958e+01  1.3201691628939910e+01  8.0912069367676374e+00  0.0000000000000000e+00  0.0000000000000000e+00  1.7897889773345126e+00  4.1232075435803210e+00  6.7022492105982927e+00  9.2097849487081955e+00  1.1296665763983448e+01  1.2566932618596899e+01  1.2561202882826439e+01  1.0748195780818795e+01  6.5862172716430880e+00  0.0000000000000000e+00  0.0000000000000000e+00  1.3059847800606381e+00  3.1756892282616467e+00  5.3324593392889188e+00  7.4849987535961047e+00  9.3181878711301085e+00  1.0482050496861433e+01  1.0576565250187578e+01  9.1354375628151576e+00  5.6558547891478428e+00  0.0000000000000000e+00  0.0000000000000000e+00  9.3541063683092462e-01  2.4532565325908231e+00  4.2968741563072532e+00  6.1979125537755495e+00  7.8685994906944066e+00  8.9910659307863980e+00  9.1995195207974394e+00  8.0546541906668452e+00  5.0531471451131349e+00  0.0000000000000000e+00  0.0000000000000000e+00  6.5919954269084291e-01  1.9169641787114098e+00  3.5335952982904559e+00  5.2593298102931749e+00  6.8267902255691491e+00  7.9390957662310111e+00  8.2486953257633981e+00  7.3251591106810654e+00  4.6542244984812378e+00  0.0000000000000000e+00  0.0000000000000000e+00  4.6127392913556109e-01  1.5339429440736094e+00  2.9915620028644292e+00  4.5983057294213037e+00  6.1010694581717164e+00  7.2160663375100240e+00  7.6049107380469749e+00  6.8384910138101827e+00  4.3911932180940392e+00  0.0000000000000000e+00  0.0000000000000000e+00  3.2895535350411986e-01  1.2785307301035942e+00  2.6316643897835212e+00  4.1620655301082135e+00  5.6258539880212890e+00  6.7469541559148904e+00  7.1913417988242738e+00  6.5287801748323187e+00  4.2249812097960628e+00  0.0000000000000000e+00  0.0000000000000000e+00  2.5317803908833059e-01  1.1325106717317419e+00  2.4265053677099404e+00  3.9143941669549824e+00  5.3574237015911139e+00  6.4835179448052571e+00  6.9605198373259842e+00  6.3568986224895117e+00  4.1331166045529635e+00  0.0000000000000000e+00  0.0000000000000000e+00  2.2853646817811435e-01  1.0850716908121993e+00  2.3599642395997318e+00  3.8342647716391700e+00  5.2708672648874479e+00  6.3989102958576991e+00  6.8866989626503408e+00  6.3021367970923352e+00  4.1039268862539799e+00  0.0000000000000000e+00  0.0000000000000000e+00  2.5328403071577726e-01  1.1327270161811027e+00  2.4268617800578340e+00  3.9149687997859908e+00  5.3583234451360555e+00  6.4847802016792233e+00  6.9619949872556113e+00  6.3582417536590032e+00  4.1339232812952948e+00  0.0000000000000000e+00  0.0000000000000000e+00  3.2933963738316474e-01  1.2793041760610362e+00  2.6328801872870193e+00  4.1638802597026272e+00  5.6284906469719571e+00  6.7504668064396212e+00  7.1953224177228750e+00  6.5323432390578233e+00  4.2271036442042815e+00  0.0000000000000000e+00  0.0000000000000000e+00  4.6231502462940766e-01  1.5360389215923711e+00  2.9947979580217989e+00  4.6029305708162367e+00  6.1074397279798038e+00  7.2241888254919058e+00  7.6138536788654125e+00  6.8463685197174708e+00  4.3958530308440897e+00  0.0000000000000000e+00  0.0000000000000000e+00  6.6152134613089597e-01  1.9216972459124497e+00  3.5409465341070190e+00  5.2697161427855495e+00  6.8407205148380346e+00  7.9563608503414400e+00  8.2673319176349924e+00  7.3414298757799381e+00  4.6638376945345152e+00  0.0000000000000000e+00  0.0000000000000000e+00  9.3984859939861942e-01  2.4625132170753417e+00  4.3115880512523734e+00  6.2189187785478595e+00  7.8965902343254992e+00  9.0252937259082220e+00  9.2362035635428725e+00  8.0867932728917236e+00  5.0723188261045697e+00  0.0000000000000000e+00  0.0000000000000000e+00  1.3133435651584613e+00  3.1915718697243576e+00  5.3586310344426780e+00  7.5233050895708171e+00  9.3697456441891216e+00  1.0545379480226643e+01  1.0645240852934382e+01  9.1969952866884075e+00  5.6935954858453259e+00  0.0000000000000000e+00  0.0000000000000000e+00  1.8002619971556340e+00  4.1471155693828763e+00  6.7437445957448778e+00  9.2728755734400785e+00  1.1383871451677843e+01  1.2676828262846255e+01  1.2684671321816291e+01  1.0864351982423416e+01  6.6613786225669216e+00  0.0000000000000000e+00  0.0000000000000000e+00  2.4193667177226867e+00  5.3691658901270207e+00  8.5335586549514719e+00  1.1569677754977416e+01  1.4089053669382755e+01  1.5632542151728568e+01  1.5638541620411216e+01  1.3419941171957250e+01  8.2457582384456245e+00  0.0000000000000000e+00  0.0000000000000000e+00  3.1872229425786092e+00  6.8937466889608618e+00  1.0790188211617901e+01  1.4514245500067597e+01  1.7645728310632915e+01  1.9668035754872278e+01  1.9906186326402466e+01  1.7437088603332082e+01  1.1055567665862084e+01  0.0000000000000000e+00  0.0000000000000000e+00  4.1134799928261518e+00  8.7425008565921836e+00  1.3553003209609409e+01  1.8175650638611657e+01  2.2177737756833508e+01  2.5016170907906730e+01  2.5947469472772823e+01  2.3829600868586734e+01  1.6620464645228800e+01  0.0000000000000000e+00  0.0000000000000000e+00  3.3262959825776255e+00  7.1688813641491356e+00  1.1206228659712414e+01  1.5089281367215841e+01  1.8417981671044846e+01  2.0708577225261632e+01  2.1336876428323137e+01  1.9416885910516253e+01  1.3453448283616989e+01  0.0000000000000000e+00  0.0000000000000000e+00  2.4037244891595444e+00  5.3312172751268578e+00  8.4652553826985066e+00  1.1463832439142564e+01  1.3940588645401034e+01  1.5441092022650951e+01  1.5414329519276631e+01  1.3194925179296266e+01  8.0876467244503978e+00  0.0000000000000000e+00  0.0000000000000000e+00  1.6402344478989128e+00  3.8188565669666383e+00  6.2327373543365816e+00  8.5592443584403828e+00  1.0444045385981275e+01  1.1491017848398503e+01  1.1262130290607033e+01  9.3189174594826838e+00  5.4041403976327169e+00  0.0000000000000000e+00  0.0000000000000000e+00  1.0257669159758762e+00  2.6083076269217367e+00  4.4643005217201601e+00  6.2965013195634079e+00  7.7876400575975833e+00  8.5999302406563967e+00  8.3875515582203111e+00  6.8481731321748072e+00  3.8835532412313172e+00  0.0000000000000000e+00  0.0000000000000000e+00  5.4312117383800351e-01  1.6625966152740206e+00  3.0964901577086503e+00  4.5733494803334871e+00  5.8094870998083072e+00  6.5129474702207482e+00  6.3980620305056410e+00  5.2288604173556719e+00  2.9478638965778607e+00  0.0000000000000000e+00  0.0000000000000000e+00  1.7291212856044746e-01  9.4070168268657550e-01  2.0613937544037721e+00  3.2865179361538215e+00  4.3596375912568730e+00  5.0207926385637247e+00  5.0188570465804032e+00  4.1454639757185410e+00  2.3432293830046169e+00  0.0000000000000000e+00  0.0000000000000000e+00  -1.0334371567056856e-01  4.0413914742606072e-01  1.2973238748310112e+00  2.3464694434481568e+00  3.3159629989705599e+00  3.9669853455590576e+00  4.0663735821299074e+00  3.4145673424721954e+00  1.9434419681123383e+00  0.0000000000000000e+00  0.0000000000000000e+00  -3.0148892769973445e-01  2.0516427474131713e-02  7.5402953519245741e-01  1.6833930804827877e+00  2.5877945033796115e+00  3.2417991054211175e+00  3.4210208927328933e+00  2.9268695744249862e+00  1.6798805649718751e+00  0.0000000000000000e+00  0.0000000000000000e+00  -4.3404828915922200e-01  -2.3547898356301608e-01  3.9304621040879140e-01  1.2455094166530369e+00  2.1106508315936066e+00  2.7709577937753216e+00  3.0061943609203379e+00  2.6163731969729294e+00  1.5132908238286040e+00  0.0000000000000000e+00  0.0000000000000000e+00  -5.1002461918279474e-01  -3.8194617466230113e-01  1.8712491836582368e-01  9.9675766007765398e-01  1.8409758040639952e+00  2.5063717873353961e+00  2.7744964686298608e+00  2.4439288545331546e+00  1.4211545422551057e+00  0.0000000000000000e+00  0.0000000000000000e+00  -5.3481830735852698e-01  -4.2970857464423795e-01  1.2006860330789829e-01  9.1593659148905138e-01  1.7536360126487445e+00  2.4210210961888241e+00  2.7000793350447254e+00  2.3887642517814767e+00  1.3917641902890401e+00  0.0000000000000000e+00  0.0000000000000000e+00  -5.1019480678683460e-01  -3.8230670304679165e-01  1.8658175361120899e-01  9.9614368615524329e-01  1.8405334565725662e+00  2.5063446614585763e+00  2.7749116815780335e+00  2.4445368930164832e+00  1.4215878276676297e+00  0.0000000000000000e+00  0.0000000000000000e+00  -4.3426143819211971e-01  -2.3597404769906777e-01  3.9223809300148704e-01  1.2445928519368643e+00  2.1101744425525024e+00  2.7714950617105503e+00  3.0077556768355453e+00  2.6182699327487469e+00  1.5145678344462274e+00  0.0000000000000000e+00  0.0000000000000000e+00  -3.0143681288946389e-01  2.0459921687558381e-02  7.5370977847508647e-01  1.6830662441415882e+00  2.5884468748827612e+00  3.2444942075778744e+00  3.4255967622850645e+00  2.9317391797238206e+00  1.6830021250273661e+00  0.0000000000000000e+00  0.0000000000000000e+00  -1.0244919770350319e-01  4.0567871725318810e-01  1.2991968238976621e+00  2.3489747225060800e+00  3.3206604382395186e+00  3.9754704128716059e+00  4.0778695105512908e+00  3.4257756872658716e+00  1.9503805255197137e+00  0.0000000000000000e+00  0.0000000000000000e+00  1.7553017309653229e-01  9.4578866657361904e-01  2.0687566299058147e+00  3.2967032778472500e+00  4.3746664600045797e+00  5.0422095836222161e+00  5.0443972689797629e+00  4.1690193946224605e+00  2.3575374481109206e+00  0.0000000000000000e+00  0.0000000000000000e+00  5.4843827324832506e-01  1.6736456804926472e+00  3.1139282340408423e+00  4.5984724265828243e+00  5.8443850813636153e+00  6.5580348015485885e+00  6.4485723796175707e+00  5.2744765728517420e+00  2.9756207452451453e+00  0.0000000000000000e+00  0.0000000000000000e+00  1.0343154443910931e+00  2.6270442634835938e+00  4.4956604425699060e+00  6.3432135001929035e+00  7.8519491213030950e+00  8.6809173094745109e+00  8.4774903778066051e+00  6.9305804404957776e+00  3.9350236472280922e+00  0.0000000000000000e+00  0.0000000000000000e+00  1.6514954498223864e+00  3.8451196698115218e+00  6.2791715694159906e+00  8.6308982907703768e+00  1.0544428539718494e+01  1.1619278306861261e+01  1.1408428870141060e+01  9.4588414989188365e+00  5.4961300573721878e+00  0.0000000000000000e+00  0.0000000000000000e+00  2.4158329029266974e+00  5.3624389919642290e+00  8.5242887438517343e+00  1.1558763794787930e+01  1.4077558736111948e+01  1.5621591394087798e+01  1.5629212167922125e+01  1.3413154730094796e+01  8.2421876224602304e+00  0.0000000000000000e+00  0.0000000000000000e+00  3.3370888949136526e+00  7.2008988409576231e+00  1.1270850851260102e+01  1.5196707370525969e+01  1.8576578335037215e+01  2.0922740152531212e+01  2.1600849685420609e+01  1.9699798747923328e+01  1.3670519103778958e+01  0.0000000000000000e+00  0.0000000000000000e+00  2.6993308462515087e+00  5.9382288773199914e+00  9.4143122678601170e+00  1.2803535037151802e+01  1.5743554644545338e+01  1.7809594934071331e+01  1.8469221754051230e+01  1.6969190893466060e+01  1.1961167976332327e+01  0.0000000000000000e+00  0.0000000000000000e+00  1.7800202057425214e+00  4.1046099069943001e+00  6.6766166246405065e+00  9.1795997223935100e+00  1.1264865790078122e+01  1.2536630319875618e+01  1.2535380859686438e+01  1.0729408694607312e+01  6.5763314075105495e+00  0.0000000000000000e+00  0.0000000000000000e+00  1.0195206296120898e+00  2.5964154625201163e+00  4.4479086405134813e+00  6.2771961768256652e+00  7.7672999813595567e+00  8.5805459861398816e+00  8.3710316638605882e+00  6.8361529452009089e+00  3.8772278278478169e+00  0.0000000000000000e+00  0.0000000000000000e+00  4.0685338360178724e-01  1.3887544607624926e+00  2.6828608248038472e+00  4.0176169086273861e+00  5.1121514363395484e+00  5.6868468361430580e+00  5.4894478907831301e+00  4.3556638016085119e+00  2.3486343419463673e+00  0.0000000000000000e+00  0.0000000000000000e+00  -7.4835301699509457e-02  4.4482819009129931e-01  1.3177695932782927e+00  2.2980601000728118e+00  3.1370313775877001e+00  3.6001693872965892e+00  3.4971031491320836e+00  2.7318527638904171e+00  1.4093945426538643e+00  0.0000000000000000e+00  0.0000000000000000e+00  -4.4471809660296030e-01  -2.7652169212097510e-01  2.8339561948222425e-01  1.0122160429817133e+00  1.6880923622001585e+00  2.1078767952118236e+00  2.1163831420910824e+00  1.6462978840442326e+00  8.0316776617239061e-01  0.0000000000000000e+00  0.0000000000000000e+00  -7.2111910390646683e-01  -8.1368136667524738e-01  -4.8232898453611223e-01  6.9096032325206322e-02  6.4071523284346499e-01  1.0509811034711976e+00  1.1616674627758103e+00  9.1378670131471340e-01  4.0245877469284030e-01  0.0000000000000000e+00  0.0000000000000000e+00  -9.1962299360328581e-01  -1.1983478074541087e+00  -1.0280272666748269e+00  -5.9823743653493111e-01  -9.2655844038188481e-02  3.2152168267411135e-01  5.1364211736399656e-01  4.2458790125828555e-01  1.3819723339465004e-01  0.0000000000000000e+00  0.0000000000000000e+00  -1.0525427913418199e+00  -1.4552639885875758e+00  -1.3908685483106318e+00  -1.0391659552044397e+00  -5.7350410651890038e-01  -1.5253262098502951e-01  9.6679480255217276e-02  1.1288421025371666e-01  -2.8934804352247556e-02  0.0000000000000000e+00  0.0000000000000000e+00  -1.1288031465682653e+00  -1.6023906566977812e+00  -1.5979725640601008e+00  -1.2896859431348433e+00  -8.4527671519597158e-01  -4.1902962850215580e-01  -1.3640593535701415e-01  -6.0404188257870972e-02  -1.2146338630563322e-01  0.0000000000000000e+00  0.0000000000000000e+00  -1.1538084730500342e+00  -1.6506107187427645e+00  -1.6657774743180815e+00  -1.3715413639565646e+00  -9.3380833097078286e-01  -5.0550570404248607e-01  -2.1170662303055723e-01  -1.1615072263682832e-01  -1.5113852768403724e-01  0.0000000000000000e+00  0.0000000000000000e+00  -1.1293565841452076e+00  -1.6035617202522503e+00  -1.5998050991513120e+00  -1.2920414979357460e+00  -8.4771167014239146e-01  -4.2096369056805671e-01  -1.3753162556743231e-01  -6.0844250663848284e-02  -1.2155539434864943e-01  0.0000000000000000e+00  0.0000000000000000e+00  -1.0535927604662165e+00  -1.4575684970