<?xml version="1.0"?>
<VTKFile type="UnstructuredGrid"  version="0.1"  >
<UnstructuredGrid>
<Piece  NumberOfPoints="1089" NumberOfCells="2048">
<Points>
<DataArray  type="Float64"  NumberOfComponents="3"  format="ascii">0 0 0  0.03125 0 0  0.0625 0 0  0.09375 0 0  0.125 0 0  0.15625 0 0  0.1875 0 0  0.21875 0 0  0.25 0 0  0.28125 0 0  0.3125 0 0  0.34375 0 0  0.375 0 0  0.40625 0 0  0.4375 0 0  0.46875 0 0  0.5 0 0  0.53125 0 0  0.5625 0 0  0.59375 0 0  0.625 0 0  0.65625 0 0  0.6875 0 0  0.71875 0 0  0.75 0 0  0.78125 0 0  0.8125 0 0  0.84375 0 0  0.875 0 0  0.90625 0 0  0.9375 0 0  0.96875 0 0  1 0 0  0 0.03125 0  0.03125 0.03125 0  0.0625 0.03125 0  0.09375 0.03125 0  0.125 0.03125 0  0.15625 0.03125 0  0.1875 0.03125 0  0.21875 0.03125 0  0.25 0.03125 0  0.28125 0.03125 0  0.3125 0.03125 0  0.34375 0.03125 0  0.375 0.03125 0  0.40625 0.03125 0  0.4375 0.03125 0  0.46875 0.03125 0  0.5 0.03125 0  0.53125 0.03125 0  0.5625 0.03125 0  0.59375 0.03125 0  0.625 0.03125 0  0.65625 0.03125 0  0.6875 0.03125 0  0.71875 0.03125 0  0.75 0.03125 0  0.78125 0.03125 0  0.8125 0.03125 0  0.84375 0.03125 0  0.875 0.03125 0  0.90625 0.03125 0  0.9375 0.03125 0  0.96875 0.03125 0  1 0.03125 0  0 0.0625 0  0.03125 0.0625 0  0.0625 0.0625 0  0.09375 0.0625 0  0.125 0.0625 0  0.15625 0.0625 0  0.1875 0.0625 0  0.21875 0.0625 0  0.25 0.0625 0  0.28125 0.0625 0  0.3125 0.0625 0  0.34375 0.0625 0  0.375 0.0625 0  0.40625 0.0625 0  0.4375 0.0625 0  0.46875 0.0625 0  0.5 0.0625 0  0.53125 0.0625 0  0.5625 0.0625 0  0.59375 0.0625 0  0.625 0.0625 0  0.65625 0.0625 0  0.6875 0.0625 0  0.71875 0.0625 0  0.75 0.0625 0  0.78125 0.0625 0  0.8125 0.0625 0  0.84375 0.0625 0  0.875 0.0625 0  0.90625 0.0625 0  0.9375 0.0625 0  0.96875 0.0625 0  1 0.0625 0  0 0.09375 0  0.03125 0.09375 0  0.0625 0.09375 0  0.09375 0.09375 0  0.125 0.09375 0  0.15625 0.09375 0  0.1875 0.09375 0  0.21875 0.09375 0  0.25 0.09375 0  0.28125 0.09375 0  0.3125 0.09375 0  0.34375 0.09375 0  0.375 0.09375 0  0.40625 0.09375 0  0.4375 0.09375 0  0.46875 0.09375 0  0.5 0.09375 0  0.53125 0.09375 0  0.5625 0.09375 0  0.59375 0.09375 0  0.625 0.09375 0  0.65625 0.09375 0  0.6875 0.09375 0  0.71875 0.09375 0  0.75 0.09375 0  0.78125 0.09375 0  0.8125 0.09375 0  0.84375 0.09375 0  0.875 0.09375 0  0.90625 0.09375 0  0.9375 0.09375 0  0.96875 0.09375 0  1 0.09375 0  0 0.125 0  0.03125 0.125 0  0.0625 0.125 0  0.09375 0.125 0  0.125 0.125 0  0.15625 0.125 0  0.1875 0.125 0  0.21875 0.125 0  0.25 0.125 0  0.28125 0.125 0  0.3125 0.125 0  0.34375 0.125 0  0.375 0.125 0  0.40625 0.125 0  0.4375 0.125 0  0.46875 0.125 0  0.5 0.125 0  0.53125 0.125 0  0.5625 0.125 0  0.59375 0.125 0  0.625 0.125 0  0.65625 0.125 0  0.6875 0.125 0  0.71875 0.125 0  0.75 0.125 0  0.78125 0.125 0  0.8125 0.125 0  0.84375 0.125 0  0.875 0.125 0  0.90625 0.125 0  0.9375 0.125 0  0.96875 0.125 0  1 0.125 0  0 0.15625 0  0.03125 0.15625 0  0.0625 0.15625 0  0.09375 0.15625 0  0.125 0.15625 0  0.15625 0.15625 0  0.1875 0.15625 0  0.21875 0.15625 0  0.25 0.15625 0  0.28125 0.15625 0  0.3125 0.15625 0  0.34375 0.15625 0  0.375 0.15625 0  0.40625 0.15625 0  0.4375 0.15625 0  0.46875 0.15625 0  0.5 0.15625 0  0.53125 0.15625 0  0.5625 0.15625 0  0.59375 0.15625 0  0.625 0.15625 0  0.65625 0.15625 0  0.6875 0.15625 0  0.71875 0.15625 0  0.75 0.15625 0  0.78125 0.15625 0  0.8125 0.15625 0  0.84375 0.15625 0  0.875 0.15625 0  0.90625 0.15625 0  0.9375 0.15625 0  0.96875 0.15625 0  1 0.15625 0  0 0.1875 0  0.03125 0.1875 0  0.0625 0.1875 0  0.09375 0.1875 0  0.125 0.1875 0  0.15625 0.1875 0  0.1875 0.1875 0  0.21875 0.1875 0  0.25 0.1875 0  0.28125 0.1875 0  0.3125 0.1875 0  0.34375 0.1875 0  0.375 0.1875 0  0.40625 0.1875 0  0.4375 0.1875 0  0.46875 0.1875 0  0.5 0.1875 0  0.53125 0.1875 0  0.5625 0.1875 0  0.59375 0.1875 0  0.625 0.1875 0  0.65625 0.1875 0  0.6875 0.1875 0  0.71875 0.1875 0  0.75 0.1875 0  0.78125 0.1875 0  0.8125 0.1875 0  0.84375 0.1875 0  0.875 0.1875 0  0.90625 0.1875 0  0.9375 0.1875 0  0.96875 0.1875 0  1 0.1875 0  0 0.21875 0  0.03125 0.21875 0  0.0625 0.21875 0  0.09375 0.21875 0  0.125 0.21875 0  0.15625 0.21875 0  0.1875 0.21875 0  0.21875 0.21875 0  0.25 0.21875 0  0.28125 0.21875 0  0.3125 0.21875 0  0.34375 0.21875 0  0.375 0.21875 0  0.40625 0.21875 0  0.4375 0.21875 0  0.46875 0.21875 0  0.5 0.21875 0  0.53125 0.21875 0  0.5625 0.21875 0  0.59375 0.21875 0  0.625 0.21875 0  0.65625 0.21875 0  0.6875 0.21875 0  0.71875 0.21875 0  0.75 0.21875 0  0.78125 0.21875 0  0.8125 0.21875 0  0.84375 0.21875 0  0.875 0.21875 0  0.90625 0.21875 0  0.9375 0.21875 0  0.96875 0.21875 0  1 0.21875 0  0 0.25 0  0.03125 0.25 0  0.0625 0.25 0  0.09375 0.25 0  0.125 0.25 0  0.15625 0.25 0  0.1875 0.25 0  0.21875 0.25 0  0.25 0.25 0  0.28125 0.25 0  0.3125 0.25 0  0.34375 0.25 0  0.375 0.25 0  0.40625 0.25 0  0.4375 0.25 0  0.46875 0.25 0  0.5 0.25 0  0.53125 0.25 0  0.5625 0.25 0  0.59375 0.25 0  0.625 0.25 0  0.65625 0.25 0  0.6875 0.25 0  0.71875 0.25 0  0.75 0.25 0  0.78125 0.25 0  0.8125 0.25 0  0.84375 0.25 0  0.875 0.25 0  0.90625 0.25 0  0.9375 0.25 0  0.96875 0.25 0  1 0.25 0  0 0.28125 0  0.03125 0.28125 0  0.0625 0.28125 0  0.09375 0.28125 0  0.125 0.28125 0  0.15625 0.28125 0  0.1875 0.28125 0  0.21875 0.28125 0  0.25 0.28125 0  0.28125 0.28125 0  0.3125 0.28125 0  0.34375 0.28125 0  0.375 0.28125 0  0.40625 0.28125 0  0.4375 0.28125 0  0.46875 0.28125 0  0.5 0.28125 0  0.53125 0.28125 0  0.5625 0.28125 0  0.59375 0.28125 0  0.625 0.28125 0  0.65625 0.28125 0  0.6875 0.28125 0  0.71875 0.28125 0  0.75 0.28125 0  0.78125 0.28125 0  0.8125 0.28125 0  0.84375 0.28125 0  0.875 0.28125 0  0.90625 0.28125 0  0.9375 0.28125 0  0.96875 0.28125 0  1 0.28125 0  0 0.3125 0  0.03125 0.3125 0  0.0625 0.3125 0  0.09375 0.3125 0  0.125 0.3125 0  0.15625 0.3125 0  0.1875 0.3125 0  0.21875 0.3125 0  0.25 0.3125 0  0.28125 0.3125 0  0.3125 0.3125 0  0.34375 0.3125 0  0.375 0.3125 0  0.40625 0.3125 0  0.4375 0.3125 0  0.46875 0.3125 0  0.5 0.3125 0  0.53125 0.3125 0  0.5625 0.3125 0  0.59375 0.3125 0  0.625 0.3125 0  0.65625 0.3125 0  0.6875 0.3125 0  0.71875 0.3125 0  0.75 0.3125 0  0.78125 0.3125 0  0.8125 0.3125 0  0.84375 0.3125 0  0.875 0.3125 0  0.90625 0.3125 0  0.9375 0.3125 0  0.96875 0.3125 0  1 0.3125 0  0 0.34375 0  0.03125 0.34375 0  0.0625 0.34375 0  0.09375 0.34375 0  0.125 0.34375 0  0.15625 0.34375 0  0.1875 0.34375 0  0.21875 0.34375 0  0.25 0.34375 0  0.28125 0.34375 0  0.3125 0.34375 0  0.34375 0.34375 0  0.375 0.34375 0  0.40625 0.34375 0  0.4375 0.34375 0  0.46875 0.34375 0  0.5 0.34375 0  0.53125 0.34375 0  0.5625 0.34375 0  0.59375 0.34375 0  0.625 0.34375 0  0.65625 0.34375 0  0.6875 0.34375 0  0.71875 0.34375 0  0.75 0.34375 0  0.78125 0.34375 0  0.8125 0.34375 0  0.84375 0.34375 0  0.875 0.34375 0  0.90625 0.34375 0  0.9375 0.34375 0  0.96875 0.34375 0  1 0.34375 0  0 0.375 0  0.03125 0.375 0  0.0625 0.375 0  0.09375 0.375 0  0.125 0.375 0  0.15625 0.375 0  0.1875 0.375 0  0.21875 0.375 0  0.25 0.375 0  0.28125 0.375 0  0.3125 0.375 0  0.34375 0.375 0  0.375 0.375 0  0.40625 0.375 0  0.4375 0.375 0  0.46875 0.375 0  0.5 0.375 0  0.53125 0.375 0  0.5625 0.375 0  0.59375 0.375 0  0.625 0.375 0  0.65625 0.375 0  0.6875 0.375 0  0.71875 0.375 0  0.75 0.375 0  0.78125 0.375 0  0.8125 0.375 0  0.84375 0.375 0  0.875 0.375 0  0.90625 0.375 0  0.9375 0.375 0  0.96875 0.375 0  1 0.375 0  0 0.40625 0  0.03125 0.40625 0  0.0625 0.40625 0  0.09375 0.40625 0  0.125 0.40625 0  0.15625 0.40625 0  0.1875 0.40625 0  0.21875 0.40625 0  0.25 0.40625 0  0.28125 0.40625 0  0.3125 0.40625 0  0.34375 0.40625 0  0.375 0.40625 0  0.40625 0.40625 0  0.4375 0.40625 0  0.46875 0.40625 0  0.5 0.40625 0  0.53125 0.40625 0  0.5625 0.40625 0  0.59375 0.40625 0  0.625 0.40625 0  0.65625 0.40625 0  0.6875 0.40625 0  0.71875 0.40625 0  0.75 0.40625 0  0.78125 0.40625 0  0.8125 0.40625 0  0.84375 0.40625 0  0.875 0.40625 0  0.90625 0.40625 0  0.9375 0.40625 0  0.96875 0.40625 0  1 0.40625 0  0 0.4375 0  0.03125 0.4375 0  0.0625 0.4375 0  0.09375 0.4375 0  0.125 0.4375 0  0.15625 0.4375 0  0.1875 0.4375 0  0.21875 0.4375 0  0.25 0.4375 0  0.28125 0.4375 0  0.3125 0.4375 0  0.34375 0.4375 0  0.375 0.4375 0  0.40625 0.4375 0  0.4375 0.4375 0  0.46875 0.4375 0  0.5 0.4375 0  0.53125 0.4375 0  0.5625 0.4375 0  0.59375 0.4375 0  0.625 0.4375 0  0.65625 0.4375 0  0.6875 0.4375 0  0.71875 0.4375 0  0.75 0.4375 0  0.78125 0.4375 0  0.8125 0.4375 0  0.84375 0.4375 0  0.875 0.4375 0  0.90625 0.4375 0  0.9375 0.4375 0  0.96875 0.4375 0  1 0.4375 0  0 0.46875 0  0.03125 0.46875 0  0.0625 0.46875 0  0.09375 0.46875 0  0.125 0.46875 0  0.15625 0.46875 0  0.1875 0.46875 0  0.21875 0.46875 0  0.25 0.46875 0  0.28125 0.46875 0  0.3125 0.46875 0  0.34375 0.46875 0  0.375 0.46875 0  0.40625 0.46875 0  0.4375 0.46875 0  0.46875 0.46875 0  0.5 0.46875 0  0.53125 0.46875 0  0.5625 0.46875 0  0.59375 0.46875 0  0.625 0.46875 0  0.65625 0.46875 0  0.6875 0.46875 0  0.71875 0.46875 0  0.75 0.46875 0  0.78125 0.46875 0  0.8125 0.46875 0  0.84375 0.46875 0  0.875 0.46875 0  0.90625 0.46875 0  0.9375 0.46875 0  0.96875 0.46875 0  1 0.46875 0  0 0.5 0  0.03125 0.5 0  0.0625 0.5 0  0.09375 0.5 0  0.125 0.5 0  0.15625 0.5 0  0.1875 0.5 0  0.21875 0.5 0  0.25 0.5 0  0.28125 0.5 0  0.3125 0.5 0  0.34375 0.5 0  0.375 0.5 0  0.40625 0.5 0  0.4375 0.5 0  0.46875 0.5 0  0.5 0.5 0  0.53125 0.5 0  0.5625 0.5 0  0.59375 0.5 0  0.625 0.5 0  0.65625 0.5 0  0.6875 0.5 0  0.71875 0.5 0  0.75 0.5 0  0.78125 0.5 0  0.8125 0.5 0  0.84375 0.5 0  0.875 0.5 0  0.90625 0.5 0  0.9375 0.5 0  0.96875 0.5 0  1 0.5 0  0 0.53125 0  0.03125 0.53125 0  0.0625 0.53125 0  0.09375 0.53125 0  0.125 0.53125 0  0.15625 0.53125 0  0.1875 0.53125 0  0.21875 0.53125 0  0.25 0.53125 0  0.28125 0.53125 0  0.3125 0.53125 0  0.34375 0.53125 0  0.375 0.53125 0  0.40625 0.53125 0  0.4375 0.53125 0  0.46875 0.53125 0  0.5 0.53125 0  0.53125 0.53125 0  0.5625 0.53125 0  0.59375 0.53125 0  0.625 0.53125 0  0.65625 0.53125 0  0.6875 0.53125 0  0.71875 0.53125 0  0.75 0.53125 0  0.78125 0.531
[...]
<PointData  Scalars="u"> 
<DataArray  type="Float64"  Name="u"  format="ascii">0.0000000000000000e+00  4.1987378477818915e-02  8.3157297406339356e-02  1.2270988176884642e-01  1.5988004236218423e-01  1.9395392888103077e-01  2.2428430488489079e-01  2.5030456302925835e-01  2.7154115469245571e-01  2.8762426276665531e-01  2.9829658892543831e-01  3.0342014550857921e-01  3.0298092889748496e-01  2.9709130651554533e-01  2.8598988862862790e-01  2.7003861041027771e-01  2.4971676050860875e-01  2.2561179555277305e-01  1.9840698833606754e-01  1.6886624981095316e-01  1.3781679304388067e-01  1.0613061815206389e-01  7.4706065277110975e-02  4.4450938262288867e-02  1.6269059712363285e-02  -8.9471657033250128e-03  -3.0313955271996509e-02  -4.6934838471168680e-02  -5.7841638578704328e-02  -6.1845422735427868e-02  -5.7130148532598804e-02  -3.9970519889801895e-02  0.0000000000000000e+00  0.0000000000000000e+00  3.7552886971452766e-02  7.4397524461929890e-02  1.0984056408442708e-01  1.4321813728148519e-01  1.7390980673509304e-01  2.0135161886023417e-01  2.2504803205792889e-01  2.4458254903110926e-01  2.5962693388857228e-01  2.6994893428334843e-01  2.7541844208004657e-01  2.7601200198895537e-01  2.7181551434039491e-01  2.6302489049492628e-01  2.4994434231076107e-01  2.3298196961377410e-01  2.1264239680032576e-01  1.8951641952305986e-01  1.6426793098954134e-01  1.3761874498985383e-01  1.1033225128499524e-01  8.3197088366522176e-02  5.7012215104403310e-02  3.2574992882234456e-02  1.0674320932504398e-02  -7.9082205730936824e-03  -2.2384427700137190e-02  -3.1924696922430877e-02  -3.5591050613043275e-02  -3.2238863121745905e-02  -2.0521003414242137e-02  0.0000000000000000e+00  0.0000000000000000e+00  3.3826644938664323e-02  6.7039349356876748e-02  9.9036712724760334e-02  1.2924213562221110e-01  1.5711554098109975e-01  1.8216432928623882e-01  2.0395339135405360e-01  2.2211406245452381e-01  2.3635196354659821e-01  2.4645372531921300e-01  2.5229260930058450e-01  2.5383300697701133e-01  2.5113370081016778e-01  2.4434962146626460e-01  2.3373167864238764e-01  2.1962415314438199e-01  2.0245919196574061e-01  1.8274818328401501e-01  1.6107017168580737e-01  1.3805790775709734e-01  1.1438249173252429e-01  9.0737785823667913e-02  6.7825821885511020e-02  4.6344366631128557e-02  2.6977673121409012e-02  1.0391178154057108e-02  -2.7699554107182161e-03  -1.1881670987847334e-02  -1.6355219729502758e-02  -1.5713249942618860e-02  -9.8746306492691598e-03  0.0000000000000000e+00  0.0000000000000000e+00  3.0714343397704253e-02  6.0896515191287651e-02  9.0024801445122107e-02  1.1759815025145574e-01  1.4314588864119474e-01  1.6623675631228116e-01  1.8648711840961155e-01  2.0356829505507060e-01  2.1721303125848032e-01  2.2722121064114492e-01  2.3346496033979042e-01  2.3589326223614451e-01  2.3453604175731252e-01  2.2950744818018326e-01  2.2100773098761106e-01  2.0932288235340352e-01  1.9482120317767676e-01  1.7794624332837172e-01  1.5920611838503976e-01  1.3915983836884954e-01  1.1840177620914956e-01  9.7545598208765419e-02  7.7208844211034744e-02  5.7998942137201186e-02  4.0500810774796024e-02  2.5265209103373047e-02  1.2795096579183282e-02  3.5231873485986418e-03  -2.2349076033815578e-03  -4.3842863324444672e-03  -3.2642692557350774e-03  0.0000000000000000e+00  0.0000000000000000e+00  2.8134213360178555e-02  5.5807566175043261e-02  8.2567826236638456e-02  1.0797977088516950e-01  1.3163309415791249e-01  1.5314965481288639e-01  1.7218994869660131e-01  1.8845878777873409e-01  2.0171029608323646e-01  2.1175247293239699e-01  2.1845168178353422e-01  2.2173742209161099e-01  2.2160754596224475e-01  2.1813365246818914e-01  2.1146581049333671e-01  2.0183524965100491e-01  1.8955350832106316e-01  1.7500692644046709e-01  1.5864625195274626e-01  1.4097216479366317e-01  1.2251828820857680e-01  1.0383346877680104e-01  8.5464740023464394e-02  6.7941614468281467e-02  5.1761360605404864e-02  3.7373727697522334e-02  2.5161936846674501e-02  1.5414228621577479e-02  8.2766874627732950e-03  3.6752812430776295e-03  1.2018399018390235e-03  0.0000000000000000e+00  0.0000000000000000e+00  2.6014943545941242e-02  5.1631708662024933e-02  7.6459162029093447e-02  1.0011999873364907e-01  1.2225702095923996e-01  1.4253871036370092e-01  1.6066396887696813e-01  1.7636602952752362e-01  1.8941573027724135e-01  1.9962459162051813e-01  2.0684838139541578e-01  2.1099194996121759e-01  2.1201588811086425e-01  2.0994487097767092e-01  2.0487649449287229e-01  1.9698838069521230e-01  1.8654089430090928e-01  1.7387338349071241e-01  1.5939334787806853e-01  1.4355973058823851e-01  1.2686282320500070e-01  1.0980354411025953e-01  9.2874127386765620e-02  7.6540977752233091e-02  6.1229097257330993e-02  4.7306327376622180e-02  3.5064666531964946e-02  2.4695093577306336e-02  1.6252144804956924e-02  9.6068831774787922e-03  4.3963474300049137e-03  0.0000000000000000e+00  0.0000000000000000e+00  2.4293851225039454e-02  4.8245159258360606e-02  7.1517101622031523e-02  9.3783999727934053e-02  1.1473615978358478e-01  1.3408387571863883e-01  1.5156041065170259e-01  1.6692392411590440e-01  1.7995858917574933e-01  1.9047556835427992e-01  1.9831501693691866e-01  2.0335062021657671e-01  2.0549796852498334e-01  2.0472700744069885e-01  2.0107693809242103e-01  1.9466996521052060e-01  1.8571929319843436e-01  1.7452760102559553e-01  1.6147479480266835e-01  1.4699700103836774e-01  1.3156099894079609e-01  1.1563865248063375e-01  9.9684532666540898e-02  8.4117758224357284e-02  6.9307145044390339e-02  5.5557586462832258e-02  4.3095223971910859e-02  3.2049306394276021e-02  2.2429906573464126e-02  1.4103756920004420e-02  6.7766660638391395e-03  0.0000000000000000e+00  0.0000000000000000e+00  2.2915299619070677e-02  4.5537965887059911e-02  6.7580051373544905e-02  8.8762629051421252e-02  1.0881942164145589e-01  1.2749936746185669e-01  1.4456780492251636e-01  1.5980611096083930e-01  1.7301000721476317e-01  1.8398744454494048e-01  1.9255792840002117e-01  1.9855596985619975e-01  2.0184132073338482e-01  2.0231706550844961e-01  1.9995345906542530e-01  1.9481176136356895e-01  1.8706025983016944e-01  1.7697586609359686e-01  1.6492907158049097e-01  1.5135557840111222e-01  1.3672176817956253e-01  1.2149162741566845e-01  1.0610018482942336e-01  9.0934787739237341e-02  7.6322555737265096e-02  6.2521014796780169e-02  4.9709104941732030e-02  3.7976924596408015e-02  2.7314394966685685e-02  1.7601565489977350e-02  8.6065583121497716e-03  0.0000000000000000e+00  0.0000000000000000e+00  2.1829375407123170e-02  4.3411330089352246e-02  6.4502426713227298e-02  8.4866778554545511e-02  1.0427875400061677e-01  1.2252429859203307e-01  1.3940031474627743e-01  1.5471164632428458e-01  1.6826569476201514e-01  1.7986578108066459e-01  1.8930605887875754e-01  1.9637248592721873e-01  2.0085479245156099e-01  2.0257212879313627e-01  2.0140982332149962e-01  1.9735828169701350e-01  1.9054112077289775e-01  1.8122129862393921e-01  1.6978135352901738e-01  1.5668328670296328e-01  1.4242009015790438e-01  1.2747143659854535e-01  1.1227140405399495e-01  9.7189728443080464e-02  8.2523335460323421e-02  6.8493229549515589e-02  5.5242678151155543e-02  4.2834699859249668e-02  3.1249125075097278e-02  2.0381535767919567e-02  1.0047997691989739e-02  0.0000000000000000e+00  0.0000000000000000e+00  2.0990858889113517e-02  4.1775501518734923e-02  6.2151366516534010e-02  8.1922722700412218e-02  1.0090281015318658e-01  1.1891420201157875e-01  1.3578644788038693e-01  1.5135003686733889e-01  1.6542626961450493e-01  1.7781423907508126e-01  1.8827892953928579e-01  1.9654759483071654e-01  2.0232291604728492e-01  2.0531838619015250e-01  2.0531306391056284e-01  2.0221213572617425e-01  1.9609271312608689e-01  1.8721650999208461e-01  1.7600288085895122e-01  1.6297113496446811e-01  1.4867153687766149e-01  1.3362490829076898e-01  1.1828274466834306e-01  1.0300920507827958e-01  8.8078904388609283e-02  7.3682300094775777e-02  5.9932364581927848e-02  4.6869634259515507e-02  3.4465737242970265e-02  2.2627418316455337e-02  1.1203887539351341e-02  0.0000000000000000e+00  0.0000000000000000e+00  2.0358532704017916e-02  4.0548349314336568e-02  6.0404455425890492e-02  7.9768773491289649e-02  9.8492147198200514e-02  1.1643412467989996e-01  1.3345904848084417e-01  1.4942670883633605e-01  1.6417637384751291e-01  1.7750526777655454e-01  1.8914694039030613e-01  1.9876028600695886e-01  2.0594284289470299e-01  2.1027808966807007e-01  2.1141395018257461e-01  2.0915280629657901e-01  2.0352167727811002e-01  1.9479400124642024e-01  1.8345261518620773e-01  1.7010760371963024e-01  1.5539897208294828e-01  1.3991449839282705e-01  1.2414016184591248e-01  1.0844392113649796e-01  9.3082389478806593e-02  7.8217294114066888e-02  6.3932130827700065e-02  5.0244830102939411e-02  3.7116496731615947e-02  2.4458436943770659e-02  1.2140115127903573e-02  0.0000000000000000e+00  0.0000000000000000e+00  1.9894875692498058e-02  3.9654724103526981e-02  5.9148679666702640e-02  7.8253657039501198e-02  9.6856666945687453e-02  1.1485446988998335e-01  1.3214841939672065e-01  1.4863168908778410e-01  1.6416654087334087e-01  1.7855228441535412e-01  1.9149094232437897e-01  2.0256587211940405e-01  2.1125372053095967e-01  2.1698535143481490e-01  2.1925356971804377e-01  2.1774035206389600e-01  2.1241831862137400e-01  2.0358440707638756e-01  1.9181005867750509e-01  1.7782769356942940e-01  1.6239721004096189e-01  1.4619646205676209e-01  1.2976006656028294e-01  1.1346621166714860e-01  9.7554970701543481e-02  8.2158449265715111e-02  6.7328929920028910e-02  5.3059354036788124e-02  3.9296464822374970e-02  2.5949574497759021e-02  1.2898100052581031e-02  0.0000000000000000e+00  0.0000000000000000e+00  1.9566168723728614e-02  3.9026689254293881e-02  5.8280804700138286e-02  7.7237017679402373e-02  9.5816108375590098e-02  1.1395109915624399e-01  1.3158124674500246e-01  1.4863597667689923e-01  1.6500493116043075e-01  1.8049405077309569e-01  1.9477626855624794e-01  2.0735715808194313e-01  2.1758390250757301e-01  2.2472055865801857e-01  2.2808868361588824e-01  2.2723751312655607e-01  2.2208210616515928e-01  2.1295131114310159e-01  2.0052332435988823e-01  1.8567566709726802e-01  1.6930960084237667e-01  1.5220903393226395e-01  1.3496638865675217e-01  1.1797355599738511e-01  1.0145405459173455e-01  8.5508851467601427e-02  7.0157054577780459e-02  5.5364271452116511e-02  4.1059545705454614e-02  2.7145050317122242e-02  1.3502648685644731e-02  0.0000000000000000e+00  0.0000000000000000e+00  1.9342994287238815e-02  3.8604605917588380e-02  5.7709214421301579e-02  7.6592252179076989e-02  9.5204161690623998e-02  1.1351099602741262e-01  1.3148796760254844e-01  1.4910051202273947e-01  1.6626739451626935e-01  1.8280482516764388e-01  1.9836154151219842e-01  2.1237032086611055e-01  2.2405265274164915e-01  2.3250751091655636e-01  2.3688508561544000e-01  2.3660117828995100e-01  2.3151371825509656e-01  2.2198617729425052e-01  2.0880844269099794e-01  1.9300911129493359e-01  1.7563625755666054e-01  1.5758368509769730e-01  1.3950366643841061e-01  1.2180257931455406e-01  1.0468765409734390e-01  8.8228946014519902e-02  7.2412580033521065e-02  5.7176581432201251e-02  4.2431009899756456e-02  2.8068048128276239e-02  1.3967347488974971e-02  0.0000000000000000e+00  0.0000000000000000e+00  1.9201044955653047e-02  3.8338907007831893e-02  5.7356985047892849e-02  7.6211435503977812e-02  9.4876073163075808e-02  1.1334371806182540e-01  1.3161962902269378e-01  1.4970039099002150e-01  1.6753126189225684e-01  1.8493995454347370e-01  2.0155783829144749e-01  2.1675841111092989e-01  2.2965721739025602e-01  2.3921149865631677e-01  2.4442247514311494e-01  2.4458879292306249e-01  2.3951758100424889e-01  2.2960239956861522e-01  2.1573176540047495e-01  1.9906826000412731e-01  1.8079043847352727e-01  1.6188986622113000e-01  1.4307210292061182e-01  1.2475656437535160e-01  1.0713634297299807e-01  9.0254540771462430e-02  7.4068507431673883e-02  5.8492014029664523e-02  4.3417896128709499e-02  2.8728238479715291e-02  1.4298555193487758e-02  0.0000000000000000e+00  0.0000000000000000e+00  1.9122083293884703e-02  3.8192224372800058e-02  5.7165637217104007e-02  7.6011497366544681e-02  9.4718535997816961e-02  1.1329698737484890e-01  1.3177209343522664e-01  1.5016171332151343e-01  1.6842996117770676e-01  1.8641406485251133e-01  2.0373597883502056e-01  2.1973148173866380e-01  2.3344605905732715e-01  2.4374115212531633e-01  2.4951549215334831e-01  2.4998549105024792e-01  2.4492084682255122e-01  2.3473361402820750e-01  2.2037912181896854e-01  2.0311249517085270e-01  1.8420343149504184e-01  1.6471244293979251e-01  1.4538316853461411e-01  1.2664488818508224e-01  1.0868137933364205e-01  9.1517300149687758e-02  7.5090130574238412e-02  5.9296752457098707e-02  4.4017780079413406e-02  2.9127747835307072e-02  1.4498456122970909e-02  0.0000000000000000e+00  0.0000000000000000e+00  1.9094843765407207e-02  3.8141403311847837e-02  5.7098737800045277e-02  7.5940266373610746e-02  9.4659608373950502e-02  1.1327277584435980e-01  1.3181179604608848e-01  1.5030204786323828e-01  1.6871484442269474e-01  1.8689209371680165e-01  2.0445458888245802e-01  2.2072747060588294e-01  2.3473389047882293e-01  2.4530252740998112e-01  2.5129481474670134e-01  2.5189478651630337e-01  2.4685428310851482e-01  2.3658752145502485e-01  2.2207078240956260e-01  2.0459160385076405e-01  1.8545361749405187e-01  1.6574443568640423e-01  1.4622383135788894e-01  1.2732651068233924e-01  1.0923398813462001e-01  9.1964697492865621e-02  7.5448950760278216e-02  5.9577325430883905e-02  4.4225737154410180e-02  2.9265685202565801e-02  1.4567310917133397e-02  0.0000000000000000e+00  0.0000000000000000e+00  1.9115662764877497e-02  3.8178917306916672e-02  5.7144451844679117e-02  7.5980805212898628e-02  9.4675936154472451e-02  1.1323922409010567e-01  1.3169518739038230e-01  1.5006155205874300e-01  1.6830359705857748e-01  1.8626176677398132e-01  2.0356361187909588e-01  2.1955218895225725e-01  2.3327990160245157e-01  2.4361180608439673e-01  2.4944440712144622e-01  2.4998549105024787e-01  2.4499193185445325e-01  2.3486296006912707e-01  2.2054527927384407e-01  2.0329178795725916e-01  1.8437579845096649e-01  1.6486474101832241e-01  1.4550953265374314e-01  1.2674504944785239e-01  1.0875828537848622e-01  9.1575063434430864e-02  7.5132730417582796e-02  5.9327444610744677e-02  4.4038965451838226e-02  2.9141054901190420e-02  1.4504876651978084e-02  0.0000000000000000e+00  0.0000000000000000e+00  1.9188679441230747e-02  3.8313319849699379e-02  5.7316360316727745e-02  7.6152806764637607e-02  9.4795095442719995e-02  1.1323454454466558e-01  1.3147517947441204e-01  1.4951344610839201e-01  1.6729681624380993e-01  1.8465889461947038e-01  2.0124117100574376e-01  2.1643020820708972e-01  2.2935389062755282e-01  2.3897582175603777e-01  2.4429309850545322e-01  2.4458879292306246e-01  2.3964695764191049e-01  2.2983807646889415e-01  2.1603509216317801e-01  1.9939646290796734e-01  1.8110710575923086e-01  1.6217092614513312e-01  1.4330654856905845e-01  1.2494350925698078e-01  1.0728079252127951e-01  9.0363714288621985e-02  7.4149485152029557e-02  5.8550642769004561e-02  4.3458520859874436e-02  2.8753825637847740e-02  1.4310920707910024e-02  0.0000000000000000e+00  0.0000000000000000e+00  1.9325556468056237e-02  3.8568615700841663e-02  5.7652320781606668e-02  7.6510647417229349e-02  9.5092329989295121e-02  1.1336161265445450e-01  1.3129230654001606e-01  1.4884989254844277e-01  1.6595618107585863e-01  1.8243502900145547e-01  1.9794803070016964e-01  2.1194435256608418e-01  2.2366079342544129e-01  2.3220403125946920e-01  2.3671880577359633e-01  2.3660117828995084e-01  2.3167999809694001e-01  2.2228965695133751e-01  2.0920030200720549e-01  1.9343507959495954e-01  1.7604976836868896e-01  1.5795348126388536e-01  1.3981487987882080e-01  1.2205319878885032e-01  1.0488331515987591e-01  8.8378329387477569e-02  7.2524411734849623e-02  5.7258186194048627e-02  4.2487903539451144e-02  2.8104038345022824e-02  1.3984785308157489e-02  0.0000000000000000e+00  0.0000000000000000e+00  1.9544792781661373e-02  3.8982719376468376e-02  5.8211691487243720e-02  7.7138681819631488e-02  9.5682733764867883e-02  1.1377511185569081e-01  1.3135384798718575e-01  1.4834876011977932e-01  1.6465307674569968e-01  1.8008109336799857e-01  1.9431937570928798e-01  2.0689056010095597e-01  2.1715750683421456e-01  2.2439186656361049e-01  2.2790908477273553e-01  2.2723751312655593e-01  2.2226170500831169e-01  2.1328000323750940e-01  2.0094972003324629e-01  1.8614226507825479e-01  1.6976649368933611e-01  1.5262199133736040e-01  1.3531824307148257e-01  1.1826077255450443e-01  1.0168145334955071e-01  8.5684838768154054e-02  7.0290429188502201e-02  5.5462607311887020e-02  4.1128658918348895e-02  2.7189020194947566e-02  1.3524024627711883e-02  0.0000000000000000e+00  0.0000000000000000e+00  1.9870798398220195e-02  3.9605393284772430e-02  5.9071657640820070e-02  7.8145104552943406e-02  9.6711225957000241e-02  1.1466535159559943e-01  1.3190802733019252e-01  1.4833323343843802e-01  1.6380704072049615e-01  1.7813689294008370e-01  1.9103758392567535e-01  2.0210806697179298e-01  2.1083898941617013e-01  2.1666761371130183e-01  2.1908059011267061e-01  2.1774035206389580e-01  2.1259129822674680e-01  2.0390214479990024e-01  1.9222478979229407e-01  1.7828549871703980e-01  1.6285056843966483e-01  1.4661185353203179e-01  1.3011956671312688e-01  1.1376466731649398e-01  9.7795362768070840e-02  8.2347567560098325e-02  6.7474370908715484e-02  5.3167906523345430e-02  3.9373486848257179e-02  2.5998905316513336e-02  1.2922177346858778e-02  0.0000000000000000e+00  0.0000000000000000e+00  2.0332945627430186e-02  4.0496151868393865e-02  6.0323552920438540e-02  7.9655932944629096e-02  9.8342982942458468e-02  1.1624329037989438e-01  1.3322089849677790e-01  1.4913677331039923e-01  1.6383391774320691e-01  1.7711681444545216e-01  1.8872988846920558e-01  1.9834489970201807e-01  2.0557057562926401e-01  2.0999507013560659e-01  2.1126057800080625e-01  2.0915280629657881e-01  2.0367504945987797e-01  1.9507702077888317e-01  1.8382488245164597e-01  1.7052299002457022e-01  1.5581602400404804e-01  1.4030295172392859e-01  1.2448261795021762e-01  1.0873385666243399e-01  9.3320539462872096e-02  7.8408128414071729e-02  6.4081295083441417e-02  5.0357670649599409e-02  3.7197399237067476e-02  2.4510634389713071e-02  1.2165702204491166e-02  0.0000000000000000e+00  0.0000000000000000e+00  2.0964796267195423e-02  4.1722572539585535e-02  6.2069951413502696e-02  8.1810386806538016e-02  1.0075637789647315e-01  1.1873002169547167e-01  1.3556103539211659e-01  1.5108132708732946e-01  1.6511562587078121e-01  1.7746906933439605e-01  1.8791521650296417e-01  1.9619106866234221e-01  2.0200742702093719e-01  2.0508071774816325e-01  2.0518497563638910e-01  2.0221213572617408e-01  1.9622080140026016e-01  1.8745417843407317e-01  1.7631836988529809e-01  1.6332766113284139e-01  1.4903524991398212e-01  1.3397007803145322e-01  1.1859338841206582e-01  1.0327791485828815e-01  8.8304316876878772e-02  7.3866480410882035e-02  6.0078796838640570e-02  4.6981970153389140e-02  3.4547152346001156e-02  2.2680347295604423e-02  1.1229950161269292e-02  0.0000000000000000e+00  0.0000000000000000e+00  2.1803647880709279e-02  4.3359314837440689e-02  6.4423018798251699e-02  8.4758379720572277e-02  1.0413940514685997e-01  1.2235197536841919e-01  1.3919350684663565e-01  1.5447035209943322e-01  1.6799288991377626e-01  1.7956920389268774e-01  1.8899979753135654e-01  1.9607749972478350e-01  2.0059743627995222e-01  2.0238025208677926e-01  2.0130706233533169e-01  1.9735828169701308e-01  1.9064388175906483e-01  1.8141317533029530e-01  1.7003870970062518e-01  1.5697827290539740e-01  1.4272635150530419e-01  1.2776801378652106e-01  1.1254420890223275e-01  9.7431022667930828e-02  8.2730143359964176e-02  6.8665552773128607e-02  5.5382027004911634e-02  4.2943098693222333e-02  3.1328532990072468e-02  2.0433551019830819e-02  1.0073725218403485e-02  0.0000000000000000e+00  0.0000000000000000e+00  2.2890471269662711e-02  4.5487983633057713e-02  6.7504296757927199e-02  8.86